+ 0.0202143 /NodeList/2/DeviceList/1/$ns3::PointToPointNetDevice/TxQueue/Enqueue ns3::PppHeader (Point-to-Point Protocol: IP (0x0021)) ns3::Ipv4Header (tos 0x0 DSCP Default ECN Not-ECT ttl 64 id 0 protocol 17 offset (bytes) 0 flags [none] length: 251 13.0.0.5 > 13.0.0.6) ns3::UdpHeader (length: 231 2123 > 2123) ns3::GtpcCreateSessionRequestMessage ( imsi 1 uliEcgi 1)
- 0.0202143 /NodeList/2/DeviceList/1/$ns3::PointToPointNetDevice/TxQueue/Dequeue ns3::PppHeader (Point-to-Point Protocol: IP (0x0021)) ns3::Ipv4Header (tos 0x0 DSCP Default ECN Not-ECT ttl 64 id 0 protocol 17 offset (bytes) 0 flags [none] length: 251 13.0.0.5 > 13.0.0.6) ns3::UdpHeader (length: 231 2123 > 2123) ns3::GtpcCreateSessionRequestMessage ( imsi 1 uliEcgi 1)
+ 0.0202143 /NodeList/2/DeviceList/1/$ns3::PointToPointNetDevice/TxQueue/Enqueue ns3::PppHeader (Point-to-Point Protocol: IP (0x0021)) ns3::Ipv4Header (tos 0x0 DSCP Default ECN Not-ECT ttl 64 id 1 protocol 17 offset (bytes) 0 flags [none] length: 251 13.0.0.5 > 13.0.0.6) ns3::UdpHeader (length: 231 2123 > 2123) ns3::GtpcCreateSessionRequestMessage ( imsi 2 uliEcgi 1)
+ 0.0202143 /NodeList/2/DeviceList/1/$ns3::PointToPointNetDevice/TxQueue/Enqueue ns3::PppHeader (Point-to-Point Protocol: IP (0x0021)) ns3::Ipv4Header (tos 0x0 DSCP Default ECN Not-ECT ttl 64 id 2 protocol 17 offset (bytes) 0 flags [none] length: 251 13.0.0.5 > 13.0.0.6) ns3::UdpHeader (length: 231 2123 > 2123) ns3::GtpcCreateSessionRequestMessage ( imsi 3 uliEcgi 1)
- 0.0202145 /NodeList/2/DeviceList/1/$ns3::PointToPointNetDevice/TxQueue/Dequeue ns3::PppHeader (Point-to-Point Protocol: IP (0x0021)) ns3::Ipv4Header (tos 0x0 DSCP Default ECN Not-ECT ttl 64 id 1 protocol 17 offset (bytes) 0 flags [none] length: 251 13.0.0.5 > 13.0.0.6) ns3::UdpHeader (length: 231 2123 > 2123) ns3::GtpcCreateSessionRequestMessage ( imsi 2 uliEcgi 1)
r 0.0202145 /NodeList/1/DeviceList/2/$ns3::PointToPointNetDevice/MacRx ns3::PppHeader (Point-to-Point Protocol: IP (0x0021)) ns3::Ipv4Header (tos 0x0 DSCP Default ECN Not-ECT ttl 64 id 0 protocol 17 offset (bytes) 0 flags [none] length: 251 13.0.0.5 > 13.0.0.6) ns3::UdpHeader (length: 231 2123 > 2123) ns3::GtpcCreateSessionRequestMessage ( imsi 1 uliEcgi 1)
+ 0.0202145 /NodeList/1/DeviceList/1/$ns3::PointToPointNetDevice/TxQueue/Enqueue ns3::PppHeader (Point-to-Point Protocol: IP (0x0021)) ns3::Ipv4Header (tos 0x0 DSCP Default ECN Not-ECT ttl 64 id 0 protocol 17 offset (bytes) 0 flags [none] length: 251 14.0.0.6 > 14.0.0.5) ns3::UdpHeader (length: 231 2123 > 2123) ns3::GtpcCreateSessionRequestMessage ( imsi 1 uliEcgi 1)
- 0.0202145 /NodeList/1/DeviceList/1/$ns3::PointToPointNetDevice/TxQueue/Dequeue ns3::PppHeader (Point-to-Point Protocol: IP (0x0021)) ns3::Ipv4Header (tos 0x0 DSCP Default ECN Not-ECT ttl 64 id 0 protocol 17 offset (bytes) 0 flags [none] length: 251 14.0.0.6 > 14.0.0.5) ns3::UdpHeader (length: 231 2123 > 2123) ns3::GtpcCreateSessionRequestMessage ( imsi 1 uliEcgi 1)
- 0.0202147 /NodeList/2/DeviceList/1/$ns3::PointToPointNetDevice/TxQueue/Dequeue ns3::PppHeader (Point-to-Point Protocol: IP (0x0021)) ns3::Ipv4Header (tos 0x0 DSCP Default ECN Not-ECT ttl 64 id 2 protocol 17 offset (bytes) 0 flags [none] length: 251 13.0.0.5 > 13.0.0.6) ns3::UdpHeader (length: 231 2123 > 2123) ns3::GtpcCreateSessionRequestMessage ( imsi 3 uliEcgi 1)
r 0.0202147 /NodeList/1/DeviceList/2/$ns3::PointToPointNetDevice/MacRx ns3::PppHeader (Point-to-Point Protocol: IP (0x0021)) ns3::Ipv4Header (tos 0x0 DSCP Default ECN Not-ECT ttl 64 id 1 protocol 17 offset (bytes) 0 flags [none] length: 251 13.0.0.5 > 13.0.0.6) ns3::UdpHeader (length: 231 2123 > 2123) ns3::GtpcCreateSessionRequestMessage ( imsi 2 uliEcgi 1)
+ 0.0202147 /NodeList/1/DeviceList/1/$ns3::PointToPointNetDevice/TxQueue/Enqueue ns3::PppHeader (Point-to-Point Protocol: IP (0x0021)) ns3::Ipv4Header (tos 0x0 DSCP Default ECN Not-ECT ttl 64 id 1 protocol 17 offset (bytes) 0 flags [none] length: 251 14.0.0.6 > 14.0.0.5) ns3::UdpHeader (length: 231 2123 > 2123) ns3::GtpcCreateSessionRequestMessage ( imsi 2 uliEcgi 1)
- 0.0202147 /NodeList/1/DeviceList/1/$ns3::PointToPointNetDevice/TxQueue/Dequeue ns3::PppHeader (Point-to-Point Protocol: IP (0x0021)) ns3::Ipv4Header (tos 0x0 DSCP Default ECN Not-ECT ttl 64 id 1 protocol 17 offset (bytes) 0 flags [none] length: 251 14.0.0.6 > 14.0.0.5) ns3::UdpHeader (length: 231 2123 > 2123) ns3::GtpcCreateSessionRequestMessage ( imsi 2 uliEcgi 1)
r 0.0202147 /NodeList/0/DeviceList/2/$ns3::PointToPointNetDevice/MacRx ns3::PppHeader (Point-to-Point Protocol: IP (0x0021)) ns3::Ipv4Header (tos 0x0 DSCP Default ECN Not-ECT ttl 64 id 0 protocol 17 offset (bytes) 0 flags [none] length: 251 14.0.0.6 > 14.0.0.5) ns3::UdpHeader (length: 231 2123 > 2123) ns3::GtpcCreateSessionRequestMessage ( imsi 1 uliEcgi 1)
+ 0.0202147 /NodeList/0/DeviceList/2/$ns3::PointToPointNetDevice/TxQueue/Enqueue ns3::PppHeader (Point-to-Point Protocol: IP (0x0021)) ns3::Ipv4Header (tos 0x0 DSCP Default ECN Not-ECT ttl 64 id 0 protocol 17 offset (bytes) 0 flags [none] length: 233 14.0.0.5 > 14.0.0.6) ns3::UdpHeader (length: 213 2123 > 2123) ns3::GtpcCreateSessionResponseMessage ( cause 16 FTEID 14.0.0.5,1)
- 0.0202147 /NodeList/0/DeviceList/2/$ns3::PointToPointNetDevice/TxQueue/Dequeue ns3::PppHeader (Point-to-Point Protocol: IP (0x0021)) ns3::Ipv4Header (tos 0x0 DSCP Default ECN Not-ECT ttl 64 id 0 protocol 17 offset (bytes) 0 flags [none] length: 233 14.0.0.5 > 14.0.0.6) ns3::UdpHeader (length: 213 2123 > 2123) ns3::GtpcCreateSessionResponseMessage ( cause 16 FTEID 14.0.0.5,1)
r 0.0202149 /NodeList/1/DeviceList/1/$ns3::PointToPointNetDevice/MacRx ns3::PppHeader (Point-to-Point Protocol: IP (0x0021)) ns3::Ipv4Header (tos 0x0 DSCP Default ECN Not-ECT ttl 64 id 0 protocol 17 offset (bytes) 0 flags [none] length: 233 14.0.0.5 > 14.0.0.6) ns3::UdpHeader (length: 213 2123 > 2123) ns3::GtpcCreateSessionResponseMessage ( cause 16 FTEID 14.0.0.5,1)
+ 0.0202149 /NodeList/1/DeviceList/2/$ns3::PointToPointNetDevice/TxQueue/Enqueue ns3::PppHeader (Point-to-Point Protocol: IP (0x0021)) ns3::Ipv4Header (tos 0x0 DSCP Default ECN Not-ECT ttl 64 id 0 protocol 17 offset (bytes) 0 flags [none] length: 233 13.0.0.6 > 13.0.0.5) ns3::UdpHeader (length: 213 2123 > 2123) ns3::GtpcCreateSessionResponseMessage ( cause 16 FTEID 102.102.102.102,32767)
- 0.0202149 /NodeList/1/DeviceList/2/$ns3::PointToPointNetDevice/TxQueue/Dequeue ns3::PppHeader (Point-to-Point Protocol: IP (0x0021)) ns3::Ipv4Header (tos 0x0 DSCP Default ECN Not-ECT ttl 64 id 0 protocol 17 offset (bytes) 0 flags [none] length: 233 13.0.0.6 > 13.0.0.5) ns3::UdpHeader (length: 213 2123 > 2123) ns3::GtpcCreateSessionResponseMessage ( cause 16 FTEID 102.102.102.102,32767)
r 0.0202149 /NodeList/1/DeviceList/2/$ns3::PointToPointNetDevice/MacRx ns3::PppHeader (Point-to-Point Protocol: IP (0x0021)) ns3::Ipv4Header (tos 0x0 DSCP Default ECN Not-ECT ttl 64 id 2 protocol 17 offset (bytes) 0 flags [none] length: 251 13.0.0.5 > 13.0.0.6) ns3::UdpHeader (length: 231 2123 > 2123) ns3::GtpcCreateSessionRequestMessage ( imsi 3 uliEcgi 1)
+ 0.0202149 /NodeList/1/DeviceList/1/$ns3::PointToPointNetDevice/TxQueue/Enqueue ns3::PppHeader (Point-to-Point Protocol: IP (0x0021)) ns3::Ipv4Header (tos 0x0 DSCP Default ECN Not-ECT ttl 64 id 2 protocol 17 offset (bytes) 0 flags [none] length: 251 14.0.0.6 > 14.0.0.5) ns3::UdpHeader (length: 231 2123 > 2123) ns3::GtpcCreateSessionRequestMessage ( imsi 3 uliEcgi 1)
- 0.0202149 /NodeList/1/DeviceList/1/$ns3::PointToPointNetDevice/TxQueue/Dequeue ns3::PppHeader (Point-to-Point Protocol: IP (0x0021)) ns3::Ipv4Header (tos 0x0 DSCP Default ECN Not-ECT ttl 64 id 2 protocol 17 offset (bytes) 0 flags [none] length: 251 14.0.0.6 > 14.0.0.5) ns3::UdpHeader (length: 231 2123 > 2123) ns3::GtpcCreateSessionRequestMessage ( imsi 3 uliEcgi 1)
r 0.0202149 /NodeList/0/DeviceList/2/$ns3::PointToPointNetDevice/MacRx ns3::PppHeader (Point-to-Point Protocol: IP (0x0021)) ns3::Ipv4Header (tos 0x0 DSCP Default ECN Not-ECT ttl 64 id 1 protocol 17 offset (bytes) 0 flags [none] length: 251 14.0.0.6 > 14.0.0.5) ns3::UdpHeader (length: 231 2123 > 2123) ns3::GtpcCreateSessionRequestMessage ( imsi 2 uliEcgi 1)
+ 0.0202149 /NodeList/0/DeviceList/2/$ns3::PointToPointNetDevice/TxQueue/Enqueue ns3::PppHeader (Point-to-Point Protocol: IP (0x0021)) ns3::Ipv4Header (tos 0x0 DSCP Default ECN Not-ECT ttl 64 id 1 protocol 17 offset (bytes) 0 flags [none] length: 233 14.0.0.5 > 14.0.0.6) ns3::UdpHeader (length: 213 2123 > 2123) ns3::GtpcCreateSessionResponseMessage ( cause 16 FTEID 14.0.0.5,2)
- 0.0202149 /NodeList/0/DeviceList/2/$ns3::PointToPointNetDevice/TxQueue/Dequeue ns3::PppHeader (Point-to-Point Protocol: IP (0x0021)) ns3::Ipv4Header (tos 0x0 DSCP Default ECN Not-ECT ttl 64 id 1 protocol 17 offset (bytes) 0 flags [none] length: 233 14.0.0.5 > 14.0.0.6) ns3::UdpHeader (length: 213 2123 > 2123) ns3::GtpcCreateSessionResponseMessage ( cause 16 FTEID 14.0.0.5,2)
r 0.0202151 /NodeList/2/DeviceList/1/$ns3::PointToPointNetDevice/MacRx ns3::PppHeader (Point-to-Point Protocol: IP (0x0021)) ns3::Ipv4Header (tos 0x0 DSCP Default ECN Not-ECT ttl 64 id 0 protocol 17 offset (bytes) 0 flags [none] length: 233 13.0.0.6 > 13.0.0.5) ns3::UdpHeader (length: 213 2123 > 2123) ns3::GtpcCreateSessionResponseMessage ( cause 16 FTEID 102.102.102.102,32767)
r 0.0202151 /NodeList/1/DeviceList/1/$ns3::PointToPointNetDevice/MacRx ns3::PppHeader (Point-to-Point Protocol: IP (0x0021)) ns3::Ipv4Header (tos 0x0 DSCP Default ECN Not-ECT ttl 64 id 1 protocol 17 offset (bytes) 0 flags [none] length: 233 14.0.0.5 > 14.0.0.6) ns3::UdpHeader (length: 213 2123 > 2123) ns3::GtpcCreateSessionResponseMessage ( cause 16 FTEID 14.0.0.5,2)
+ 0.0202151 /NodeList/1/DeviceList/2/$ns3::PointToPointNetDevice/TxQueue/Enqueue ns3::PppHeader (Point-to-Point Protocol: IP (0x0021)) ns3::Ipv4Header (tos 0x0 DSCP Default ECN Not-ECT ttl 64 id 1 protocol 17 offset (bytes) 0 flags [none] length: 233 13.0.0.6 > 13.0.0.5) ns3::UdpHeader (length: 213 2123 > 2123) ns3::GtpcCreateSessionResponseMessage ( cause 16 FTEID 102.102.102.102,32767)
- 0.0202151 /NodeList/1/DeviceList/2/$ns3::PointToPointNetDevice/TxQueue/Dequeue ns3::PppHeader (Point-to-Point Protocol: IP (0x0021)) ns3::Ipv4Header (tos 0x0 DSCP Default ECN Not-ECT ttl 64 id 1 protocol 17 offset (bytes) 0 flags [none] length: 233 13.0.0.6 > 13.0.0.5) ns3::UdpHeader (length: 213 2123 > 2123) ns3::GtpcCreateSessionResponseMessage ( cause 16 FTEID 102.102.102.102,32767)
r 0.0202151 /NodeList/0/DeviceList/2/$ns3::PointToPointNetDevice/MacRx ns3::PppHeader (Point-to-Point Protocol: IP (0x0021)) ns3::Ipv4Header (tos 0x0 DSCP Default ECN Not-ECT ttl 64 id 2 protocol 17 offset (bytes) 0 flags [none] length: 251 14.0.0.6 > 14.0.0.5) ns3::UdpHeader (length: 231 2123 > 2123) ns3::GtpcCreateSessionRequestMessage ( imsi 3 uliEcgi 1)
+ 0.0202151 /NodeList/0/DeviceList/2/$ns3::PointToPointNetDevice/TxQueue/Enqueue ns3::PppHeader (Point-to-Point Protocol: IP (0x0021)) ns3::Ipv4Header (tos 0x0 DSCP Default ECN Not-ECT ttl 64 id 2 protocol 17 offset (bytes) 0 flags [none] length: 233 14.0.0.5 > 14.0.0.6) ns3::UdpHeader (length: 213 2123 > 2123) ns3::GtpcCreateSessionResponseMessage ( cause 16 FTEID 14.0.0.5,3)
- 0.0202151 /NodeList/0/DeviceList/2/$ns3::PointToPointNetDevice/TxQueue/Dequeue ns3::PppHeader (Point-to-Point Protocol: IP (0x0021)) ns3::Ipv4Header (tos 0x0 DSCP Default ECN Not-ECT ttl 64 id 2 protocol 17 offset (bytes) 0 flags [none] length: 233 14.0.0.5 > 14.0.0.6) ns3::UdpHeader (length: 213 2123 > 2123) ns3::GtpcCreateSessionResponseMessage ( cause 16 FTEID 14.0.0.5,3)
r 0.0202153 /NodeList/2/DeviceList/1/$ns3::PointToPointNetDevice/MacRx ns3::PppHeader (Point-to-Point Protocol: IP (0x0021)) ns3::Ipv4Header (tos 0x0 DSCP Default ECN Not-ECT ttl 64 id 1 protocol 17 offset (bytes) 0 flags [none] length: 233 13.0.0.6 > 13.0.0.5) ns3::UdpHeader (length: 213 2123 > 2123) ns3::GtpcCreateSessionResponseMessage ( cause 16 FTEID 102.102.102.102,32767)
r 0.0202153 /NodeList/1/DeviceList/1/$ns3::PointToPointNetDevice/MacRx ns3::PppHeader (Point-to-Point Protocol: IP (0x0021)) ns3::Ipv4Header (tos 0x0 DSCP Default ECN Not-ECT ttl 64 id 2 protocol 17 offset (bytes) 0 flags [none] length: 233 14.0.0.5 > 14.0.0.6) ns3::UdpHeader (length: 213 2123 > 2123) ns3::GtpcCreateSessionResponseMessage ( cause 16 FTEID 14.0.0.5,3)
+ 0.0202153 /NodeList/1/DeviceList/2/$ns3::PointToPointNetDevice/TxQueue/Enqueue ns3::PppHeader (Point-to-Point Protocol: IP (0x0021)) ns3::Ipv4Header (tos 0x0 DSCP Default ECN Not-ECT ttl 64 id 2 protocol 17 offset (bytes) 0 flags [none] length: 233 13.0.0.6 > 13.0.0.5) ns3::UdpHeader (length: 213 2123 > 2123) ns3::GtpcCreateSessionResponseMessage ( cause 16 FTEID 102.102.102.102,32767)
- 0.0202153 /NodeList/1/DeviceList/2/$ns3::PointToPointNetDevice/TxQueue/Dequeue ns3::PppHeader (Point-to-Point Protocol: IP (0x0021)) ns3::Ipv4Header (tos 0x0 DSCP Default ECN Not-ECT ttl 64 id 2 protocol 17 offset (bytes) 0 flags [none] length: 233 13.0.0.6 > 13.0.0.5) ns3::UdpHeader (length: 213 2123 > 2123) ns3::GtpcCreateSessionResponseMessage ( cause 16 FTEID 102.102.102.102,32767)
r 0.0202155 /NodeList/2/DeviceList/1/$ns3::PointToPointNetDevice/MacRx ns3::PppHeader (Point-to-Point Protocol: IP (0x0021)) ns3::Ipv4Header (tos 0x0 DSCP Default ECN Not-ECT ttl 64 id 2 protocol 17 offset (bytes) 0 flags [none] length: 233 13.0.0.6 > 13.0.0.5) ns3::UdpHeader (length: 213 2123 > 2123) ns3::GtpcCreateSessionResponseMessage ( cause 16 FTEID 102.102.102.102,32767)
+ 0.03 /NodeList/3/DeviceList/1/$ns3::PointToPointNetDevice/TxQueue/Enqueue ns3::PppHeader (Point-to-Point Protocol: IP (0x0021)) ns3::Ipv4Header (tos 0x0 DSCP Default ECN Not-ECT ttl 64 id 0 protocol 17 offset (bytes) 0 flags [none] length: 1052 1.0.0.2 > 7.0.0.2) ns3::UdpHeader (length: 1032 49153 > 1234) ns3::SeqTsHeader ((seq=0 time=0.03)) Payload (size=1012)
- 0.03 /NodeList/3/DeviceList/1/$ns3::PointToPointNetDevice/TxQueue/Dequeue ns3::PppHeader (Point-to-Point Protocol: IP (0x0021)) ns3::Ipv4Header (tos 0x0 DSCP Default ECN Not-ECT ttl 64 id 0 protocol 17 offset (bytes) 0 flags [none] length: 1052 1.0.0.2 > 7.0.0.2) ns3::UdpHeader (length: 1032 49153 > 1234) ns3::SeqTsHeader ((seq=0 time=0.03)) Payload (size=1012)
+ 0.03 /NodeList/3/DeviceList/1/$ns3::PointToPointNetDevice/TxQueue/Enqueue ns3::PppHeader (Point-to-Point Protocol: IP (0x0021)) ns3::Ipv4Header (tos 0x0 DSCP Default ECN Not-ECT ttl 64 id 0 protocol 17 offset (bytes) 0 flags [none] length: 1052 1.0.0.2 > 7.0.0.3) ns3::UdpHeader (length: 1032 49154 > 1234) ns3::SeqTsHeader ((seq=0 time=0.03)) Payload (size=1012)
+ 0.03 /NodeList/3/DeviceList/1/$ns3::PointToPointNetDevice/TxQueue/Enqueue ns3::PppHeader (Point-to-Point Protocol: IP (0x0021)) ns3::Ipv4Header (tos 0x0 DSCP Default ECN Not-ECT ttl 64 id 0 protocol 17 offset (bytes) 0 flags [none] length: 1052 1.0.0.2 > 7.0.0.4) ns3::UdpHeader (length: 1032 49155 > 1234) ns3::SeqTsHeader ((seq=0 time=0.03)) Payload (size=1012)
- 0.0300001 /NodeList/3/DeviceList/1/$ns3::PointToPointNetDevice/TxQueue/Dequeue ns3::PppHeader (Point-to-Point Protocol: IP (0x0021)) ns3::Ipv4Header (tos 0x0 DSCP Default ECN Not-ECT ttl 64 id 0 protocol 17 offset (bytes) 0 flags [none] length: 1052 1.0.0.2 > 7.0.0.3) ns3::UdpHeader (length: 1032 49154 > 1234) ns3::SeqTsHeader ((seq=0 time=0.03)) Payload (size=1012)
- 0.0300002 /NodeList/3/DeviceList/1/$ns3::PointToPointNetDevice/TxQueue/Dequeue ns3::PppHeader (Point-to-Point Protocol: IP (0x0021)) ns3::Ipv4Header (tos 0x0 DSCP Default ECN Not-ECT ttl 64 id 0 protocol 17 offset (bytes) 0 flags [none] length: 1052 1.0.0.2 > 7.0.0.4) ns3::UdpHeader (length: 1032 49155 > 1234) ns3::SeqTsHeader ((seq=0 time=0.03)) Payload (size=1012)
r 0.0400001 /NodeList/0/DeviceList/3/$ns3::PointToPointNetDevice/MacRx ns3::PppHeader (Point-to-Point Protocol: IP (0x0021)) ns3::Ipv4Header (tos 0x0 DSCP Default ECN Not-ECT ttl 64 id 0 protocol 17 offset (bytes) 0 flags [none] length: 1052 1.0.0.2 > 7.0.0.2) ns3::UdpHeader (length: 1032 49153 > 1234) ns3::SeqTsHeader ((seq=0 time=0.03)) Payload (size=1012)
+ 0.0400001 /NodeList/0/DeviceList/2/$ns3::PointToPointNetDevice/TxQueue/Enqueue ns3::PppHeader (Point-to-Point Protocol: IP (0x0021)) ns3::Ipv4Header (tos 0x0 DSCP Default ECN Not-ECT ttl 64 id 3 protocol 17 offset (bytes) 0 flags [none] length: 1092 14.0.0.5 > 14.0.0.6) ns3::UdpHeader (length: 1072 2152 > 2152) ns3::GtpuHeader ( version=1 [ PT  S  PN ], messageType=255, length=1056, teid=2, sequenceNumber=0, nPduNumber=0, nextExtensionType=0) ns3::Ipv4Header (tos 0x0 DSCP Default ECN Not-ECT ttl 63 id 0 protocol 17 offset (bytes) 0 flags [none] length: 1052 1.0.0.2 > 7.0.0.2) ns3::UdpHeader (length: 1032 49153 > 1234) ns3::SeqTsHeader ((seq=0 time=0.03)) Payload (size=1012)
- 0.0400001 /NodeList/0/DeviceList/2/$ns3::PointToPointNetDevice/TxQueue/Dequeue ns3::PppHeader (Point-to-Point Protocol: IP (0x0021)) ns3::Ipv4Header (tos 0x0 DSCP Default ECN Not-ECT ttl 64 id 3 protocol 17 offset (bytes) 0 flags [none] length: 1092 14.0.0.5 > 14.0.0.6) ns3::UdpHeader (length: 1072 2152 > 2152) ns3::GtpuHeader ( version=1 [ PT  S  PN ], messageType=255, length=1056, teid=2, sequenceNumber=0, nPduNumber=0, nextExtensionType=0) ns3::Ipv4Header (tos 0x0 DSCP Default ECN Not-ECT ttl 63 id 0 protocol 17 offset (bytes) 0 flags [none] length: 1052 1.0.0.2 > 7.0.0.2) ns3::UdpHeader (length: 1032 49153 > 1234) ns3::SeqTsHeader ((seq=0 time=0.03)) Payload (size=1012)
r 0.0400002 /NodeList/0/DeviceList/3/$ns3::PointToPointNetDevice/MacRx ns3::PppHeader (Point-to-Point Protocol: IP (0x0021)) ns3::Ipv4Header (tos 0x0 DSCP Default ECN Not-ECT ttl 64 id 0 protocol 17 offset (bytes) 0 flags [none] length: 1052 1.0.0.2 > 7.0.0.3) ns3::UdpHeader (length: 1032 49154 > 1234) ns3::SeqTsHeader ((seq=0 time=0.03)) Payload (size=1012)
+ 0.0400002 /NodeList/0/DeviceList/2/$ns3::PointToPointNetDevice/TxQueue/Enqueue ns3::PppHeader (Point-to-Point Protocol: IP (0x0021)) ns3::Ipv4Header (tos 0x0 DSCP Default ECN Not-ECT ttl 64 id 4 protocol 17 offset (bytes) 0 flags [none] length: 1092 14.0.0.5 > 14.0.0.6) ns3::UdpHeader (length: 1072 2152 > 2152) ns3::GtpuHeader ( version=1 [ PT  S  PN ], messageType=255, length=1056, teid=4, sequenceNumber=0, nPduNumber=0, nextExtensionType=0) ns3::Ipv4Header (tos 0x0 DSCP Default ECN Not-ECT ttl 63 id 0 protocol 17 offset (bytes) 0 flags [none] length: 1052 1.0.0.2 > 7.0.0.3) ns3::UdpHeader (length: 1032 49154 > 1234) ns3::SeqTsHeader ((seq=0 time=0.03)) Payload (size=1012)
r 0.0400003 /NodeList/0/DeviceList/3/$ns3::PointToPointNetDevice/MacRx ns3::PppHeader (Point-to-Point Protocol: IP (0x0021)) ns3::Ipv4Header (tos 0x0 DSCP Default ECN Not-ECT ttl 64 id 0 protocol 17 offset (bytes) 0 flags [none] length: 1052 1.0.0.2 > 7.0.0.4) ns3::UdpHeader (length: 1032 49155 > 1234) ns3::SeqTsHeader ((seq=0 time=0.03)) Payload (size=1012)
+ 0.0400003 /NodeList/0/DeviceList/2/$ns3::PointToPointNetDevice/TxQueue/Enqueue ns3::PppHeader (Point-to-Point Protocol: IP (0x0021)) ns3::Ipv4Header (tos 0x0 DSCP Default ECN Not-ECT ttl 64 id 5 protocol 17 offset (bytes) 0 flags [none] length: 1092 14.0.0.5 > 14.0.0.6) ns3::UdpHeader (length: 1072 2152 > 2152) ns3::GtpuHeader ( version=1 [ PT  S  PN ], messageType=255, length=1056, teid=6, sequenceNumber=0, nPduNumber=0, nextExtensionType=0) ns3::Ipv4Header (tos 0x0 DSCP Default ECN Not-ECT ttl 63 id 0 protocol 17 offset (bytes) 0 flags [none] length: 1052 1.0.0.2 > 7.0.0.4) ns3::UdpHeader (length: 1032 49155 > 1234) ns3::SeqTsHeader ((seq=0 time=0.03)) Payload (size=1012)
- 0.040001 /NodeList/0/DeviceList/2/$ns3::PointToPointNetDevice/TxQueue/Dequeue ns3::PppHeader (Point-to-Point Protocol: IP (0x0021)) ns3::Ipv4Header (tos 0x0 DSCP Default ECN Not-ECT ttl 64 id 4 protocol 17 offset (bytes) 0 flags [none] length: 1092 14.0.0.5 > 14.0.0.6) ns3::UdpHeader (length: 1072 2152 > 2152) ns3::GtpuHeader ( version=1 [ PT  S  PN ], messageType=255, length=1056, teid=4, sequenceNumber=0, nPduNumber=0, nextExtensionType=0) ns3::Ipv4Header (tos 0x0 DSCP Default ECN Not-ECT ttl 63 id 0 protocol 17 offset (bytes) 0 flags [none] length: 1052 1.0.0.2 > 7.0.0.3) ns3::UdpHeader (length: 1032 49154 > 1234) ns3::SeqTsHeader ((seq=0 time=0.03)) Payload (size=1012)
r 0.040001 /NodeList/1/DeviceList/1/$ns3::PointToPointNetDevice/MacRx ns3::PppHeader (Point-to-Point Protocol: IP (0x0021)) ns3::Ipv4Header (tos 0x0 DSCP Default ECN Not-ECT ttl 64 id 3 protocol 17 offset (bytes) 0 flags [none] length: 1092 14.0.0.5 > 14.0.0.6) ns3::UdpHeader (length: 1072 2152 > 2152) ns3::GtpuHeader ( version=1 [ PT  S  PN ], messageType=255, length=1056, teid=2, sequenceNumber=0, nPduNumber=0, nextExtensionType=0) ns3::Ipv4Header (tos 0x0 DSCP Default ECN Not-ECT ttl 63 id 0 protocol 17 offset (bytes) 0 flags [none] length: 1052 1.0.0.2 > 7.0.0.2) ns3::UdpHeader (length: 1032 49153 > 1234) ns3::SeqTsHeader ((seq=0 time=0.03)) Payload (size=1012)
+ 0.040001 /NodeList/1/DeviceList/3/$ns3::PointToPointNetDevice/TxQueue/Enqueue ns3::PppHeader (Point-to-Point Protocol: IP (0x0021)) ns3::Ipv4Header (tos 0x0 DSCP Default ECN Not-ECT ttl 64 id 0 protocol 17 offset (bytes) 0 flags [none] length: 1092 10.0.0.6 > 10.0.0.5) ns3::UdpHeader (length: 1072 2152 > 2152) ns3::GtpuHeader ( version=1 [ PT  S  PN ], messageType=255, length=1056, teid=2, sequenceNumber=0, nPduNumber=0, nextExtensionType=0) ns3::Ipv4Header (tos 0x0 DSCP Default ECN Not-ECT ttl 63 id 0 protocol 17 offset (bytes) 0 flags [none] length: 1052 1.0.0.2 > 7.0.0.2) ns3::UdpHeader (length: 1032 49153 > 1234) ns3::SeqTsHeader ((seq=0 time=0.03)) Payload (size=1012)
- 0.040001 /NodeList/1/DeviceList/3/$ns3::PointToPointNetDevice/TxQueue/Dequeue ns3::PppHeader (Point-to-Point Protocol: IP (0x0021)) ns3::Ipv4Header (tos 0x0 DSCP Default ECN Not-ECT ttl 64 id 0 protocol 17 offset (bytes) 0 flags [none] length: 1092 10.0.0.6 > 10.0.0.5) ns3::UdpHeader (length: 1072 2152 > 2152) ns3::GtpuHeader ( version=1 [ PT  S  PN ], messageType=255, length=1056, teid=2, sequenceNumber=0, nPduNumber=0, nextExtensionType=0) ns3::Ipv4Header (tos 0x0 DSCP Default ECN Not-ECT ttl 63 id 0 protocol 17 offset (bytes) 0 flags [none] length: 1052 1.0.0.2 > 7.0.0.2) ns3::UdpHeader (length: 1032 49153 > 1234) ns3::SeqTsHeader ((seq=0 time=0.03)) Payload (size=1012)
- 0.0400018 /NodeList/0/DeviceList/2/$ns3::PointToPointNetDevice/TxQueue/Dequeue ns3::PppHeader (Point-to-Point Protocol: IP (0x0021)) ns3::Ipv4Header (tos 0x0 DSCP Default ECN Not-ECT ttl 64 id 5 protocol 17 offset (bytes) 0 flags [none] length: 1092 14.0.0.5 > 14.0.0.6) ns3::UdpHeader (length: 1072 2152 > 2152) ns3::GtpuHeader ( version=1 [ PT  S  PN ], messageType=255, length=1056, teid=6, sequenceNumber=0, nPduNumber=0, nextExtensionType=0) ns3::Ipv4Header (tos 0x0 DSCP Default ECN Not-ECT ttl 63 id 0 protocol 17 offset (bytes) 0 flags [none] length: 1052 1.0.0.2 > 7.0.0.4) ns3::UdpHeader (length: 1032 49155 > 1234) ns3::SeqTsHeader ((seq=0 time=0.03)) Payload (size=1012)
r 0.0400018 /NodeList/1/DeviceList/1/$ns3::PointToPointNetDevice/MacRx ns3::PppHeader (Point-to-Point Protocol: IP (0x0021)) ns3::Ipv4Header (tos 0x0 DSCP Default ECN Not-ECT ttl 64 id 4 protocol 17 offset (bytes) 0 flags [none] length: 1092 14.0.0.5 > 14.0.0.6) ns3::UdpHeader (length: 1072 2152 > 2152) ns3::GtpuHeader ( version=1 [ PT  S  PN ], messageType=255, length=1056, teid=4, sequenceNumber=0, nPduNumber=0, nextExtensionType=0) ns3::Ipv4Header (tos 0x0 DSCP Default ECN Not-ECT ttl 63 id 0 protocol 17 offset (bytes) 0 flags [none] length: 1052 1.0.0.2 > 7.0.0.3) ns3::UdpHeader (length: 1032 49154 > 1234) ns3::SeqTsHeader ((seq=0 time=0.03)) Payload (size=1012)
+ 0.0400018 /NodeList/1/DeviceList/3/$ns3::PointToPointNetDevice/TxQueue/Enqueue ns3::PppHeader (Point-to-Point Protocol: IP (0x0021)) ns3::Ipv4Header (tos 0x0 DSCP Default ECN Not-ECT ttl 64 id 1 protocol 17 offset (bytes) 0 flags [none] length: 1092 10.0.0.6 > 10.0.0.5) ns3::UdpHeader (length: 1072 2152 > 2152) ns3::GtpuHeader ( version=1 [ PT  S  PN ], messageType=255, length=1056, teid=4, sequenceNumber=0, nPduNumber=0, nextExtensionType=0) ns3::Ipv4Header (tos 0x0 DSCP Default ECN Not-ECT ttl 63 id 0 protocol 17 offset (bytes) 0 flags [none] length: 1052 1.0.0.2 > 7.0.0.3) ns3::UdpHeader (length: 1032 49154 > 1234) ns3::SeqTsHeader ((seq=0 time=0.03)) Payload (size=1012)
- 0.0400018 /NodeList/1/DeviceList/3/$ns3::PointToPointNetDevice/TxQueue/Dequeue ns3::PppHeader (Point-to-Point Protocol: IP (0x0021)) ns3::Ipv4Header (tos 0x0 DSCP Default ECN Not-ECT ttl 64 id 1 protocol 17 offset (bytes) 0 flags [none] length: 1092 10.0.0.6 > 10.0.0.5) ns3::UdpHeader (length: 1072 2152 > 2152) ns3::GtpuHeader ( version=1 [ PT  S  PN ], messageType=255, length=1056, teid=4, sequenceNumber=0, nPduNumber=0, nextExtensionType=0) ns3::Ipv4Header (tos 0x0 DSCP Default ECN Not-ECT ttl 63 id 0 protocol 17 offset (bytes) 0 flags [none] length: 1052 1.0.0.2 > 7.0.0.3) ns3::UdpHeader (length: 1032 49154 > 1234) ns3::SeqTsHeader ((seq=0 time=0.03)) Payload (size=1012)
r 0.0400018 /NodeList/4/DeviceList/2/$ns3::PointToPointNetDevice/MacRx ns3::PppHeader (Point-to-Point Protocol: IP (0x0021)) ns3::Ipv4Header (tos 0x0 DSCP Default ECN Not-ECT ttl 64 id 0 protocol 17 offset (bytes) 0 flags [none] length: 1092 10.0.0.6 > 10.0.0.5) ns3::UdpHeader (length: 1072 2152 > 2152) ns3::GtpuHeader ( version=1 [ PT  S  PN ], messageType=255, length=1056, teid=2, sequenceNumber=0, nPduNumber=0, nextExtensionType=0) ns3::Ipv4Header (tos 0x0 DSCP Default ECN Not-ECT ttl 63 id 0 protocol 17 offset (bytes) 0 flags [none] length: 1052 1.0.0.2 > 7.0.0.2) ns3::UdpHeader (length: 1032 49153 > 1234) ns3::SeqTsHeader ((seq=0 time=0.03)) Payload (size=1012)
r 0.0400027 /NodeList/1/DeviceList/1/$ns3::PointToPointNetDevice/MacRx ns3::PppHeader (Point-to-Point Protocol: IP (0x0021)) ns3::Ipv4Header (tos 0x0 DSCP Default ECN Not-ECT ttl 64 id 5 protocol 17 offset (bytes) 0 flags [none] length: 1092 14.0.0.5 > 14.0.0.6) ns3::UdpHeader (length: 1072 2152 > 2152) ns3::GtpuHeader ( version=1 [ PT  S  PN ], messageType=255, length=1056, teid=6, sequenceNumber=0, nPduNumber=0, nextExtensionType=0) ns3::Ipv4Header (tos 0x0 DSCP Default ECN Not-ECT ttl 63 id 0 protocol 17 offset (bytes) 0 flags [none] length: 1052 1.0.0.2 > 7.0.0.4) ns3::UdpHeader (length: 1032 49155 > 1234) ns3::SeqTsHeader ((seq=0 time=0.03)) Payload (size=1012)
+ 0.0400027 /NodeList/1/DeviceList/3/$ns3::PointToPointNetDevice/TxQueue/Enqueue ns3::PppHeader (Point-to-Point Protocol: IP (0x0021)) ns3::Ipv4Header (tos 0x0 DSCP Default ECN Not-ECT ttl 64 id 2 protocol 17 offset (bytes) 0 flags [none] length: 1092 10.0.0.6 > 10.0.0.5) ns3::UdpHeader (length: 1072 2152 > 2152) ns3::GtpuHeader ( version=1 [ PT  S  PN ], messageType=255, length=1056, teid=6, sequenceNumber=0, nPduNumber=0, nextExtensionType=0) ns3::Ipv4Header (tos 0x0 DSCP Default ECN Not-ECT ttl 63 id 0 protocol 17 offset (bytes) 0 flags [none] length: 1052 1.0.0.2 > 7.0.0.4) ns3::UdpHeader (length: 1032 49155 > 1234) ns3::SeqTsHeader ((seq=0 time=0.03)) Payload (size=1012)
- 0.0400027 /NodeList/1/DeviceList/3/$ns3::PointToPointNetDevice/TxQueue/Dequeue ns3::PppHeader (Point-to-Point Protocol: IP (0x0021)) ns3::Ipv4Header (tos 0x0 DSCP Default ECN Not-ECT ttl 64 id 2 protocol 17 offset (bytes) 0 flags [none] length: 1092 10.0.0.6 > 10.0.0.5) ns3::UdpHeader (length: 1072 2152 > 2152) ns3::GtpuHeader ( version=1 [ PT  S  PN ], messageType=255, length=1056, teid=6, sequenceNumber=0, nPduNumber=0, nextExtensionType=0) ns3::Ipv4Header (tos 0x0 DSCP Default ECN Not-ECT ttl 63 id 0 protocol 17 offset (bytes) 0 flags [none] length: 1052 1.0.0.2 > 7.0.0.4) ns3::UdpHeader (length: 1032 49155 > 1234) ns3::SeqTsHeader ((seq=0 time=0.03)) Payload (size=1012)
r 0.0400027 /NodeList/4/DeviceList/2/$ns3::PointToPointNetDevice/MacRx ns3::PppHeader (Point-to-Point Protocol: IP (0x0021)) ns3::Ipv4Header (tos 0x0 DSCP Default ECN Not-ECT ttl 64 id 1 protocol 17 offset (bytes) 0 flags [none] length: 1092 10.0.0.6 > 10.0.0.5) ns3::UdpHeader (length: 1072 2152 > 2152) ns3::GtpuHeader ( version=1 [ PT  S  PN ], messageType=255, length=1056, teid=4, sequenceNumber=0, nPduNumber=0, nextExtensionType=0) ns3::Ipv4Header (tos 0x0 DSCP Default ECN Not-ECT ttl 63 id 0 protocol 17 offset (bytes) 0 flags [none] length: 1052 1.0.0.2 > 7.0.0.3) ns3::UdpHeader (length: 1032 49154 > 1234) ns3::SeqTsHeader ((seq=0 time=0.03)) Payload (size=1012)
r 0.0400036 /NodeList/4/DeviceList/2/$ns3::PointToPointNetDevice/MacRx ns3::PppHeader (Point-to-Point Protocol: IP (0x0021)) ns3::Ipv4Header (tos 0x0 DSCP Default ECN Not-ECT ttl 64 id 2 protocol 17 offset (bytes) 0 flags [none] length: 1092 10.0.0.6 > 10.0.0.5) ns3::UdpHeader (length: 1072 2152 > 2152) ns3::GtpuHeader ( version=1 [ PT  S  PN ], messageType=255, length=1056, teid=6, sequenceNumber=0, nPduNumber=0, nextExtensionType=0) ns3::Ipv4Header (tos 0x0 DSCP Default ECN Not-ECT ttl 63 id 0 protocol 17 offset (bytes) 0 flags [none] length: 1052 1.0.0.2 > 7.0.0.4) ns3::UdpHeader (length: 1032 49155 > 1234) ns3::SeqTsHeader ((seq=0 time=0.03)) Payload (size=1012)
+ 0.0489286 /NodeList/4/DeviceList/2/$ns3::PointToPointNetDevice/TxQueue/Enqueue ns3::PppHeader (Point-to-Point Protocol: IP (0x0021)) ns3::Ipv4Header (tos 0x0 DSCP Default ECN Not-ECT ttl 64 id 0 protocol 17 offset (bytes) 0 flags [none] length: 1092 10.0.0.5 > 10.0.0.6) ns3::UdpHeader (length: 1072 2152 > 2152) ns3::GtpuHeader ( version=1 [ PT  S  PN ], messageType=255, length=1056, teid=4, sequenceNumber=0, nPduNumber=0, nextExtensionType=0) ns3::Ipv4Header (tos 0x0 DSCP Default ECN Not-ECT ttl 64 id 0 protocol 17 offset (bytes) 0 flags [none] length: 1052 7.0.0.3 > 7.0.0.2) ns3::UdpHeader (length: 1032 49153 > 3001) ns3::SeqTsHeader ((seq=0 time=0.03)) Payload (size=1012)